version 3
run RBAPureAlohaExperiment-12-20260306-12:19:33-1312
attr configname RBAPureAlohaExperiment
attr datetime 20260306-12:19:33
attr datetimef 20260306-121933
attr experiment RBAPureAlohaExperiment
attr inifile omnetpp.ini
attr iterationvars "$numHosts=15, $iaMean=7"
attr iterationvarsd numHosts=15/iaMean=7
attr iterationvarsf numHosts=15,iaMean=7-
attr measurement "$numHosts=15, $iaMean=7"
attr network Aloha
attr processid 1312
attr repetition 0
attr replication #0
attr resultdir results
attr runnumber 12
attr seedset 12
itervar iaMean 7
itervar numHosts 15
config description "Channel utilization in the function of packet generation frequency"
config Aloha.numHosts 15
config Aloha.host[*].iaTime exponential(7s)
config repeat 1
config sim-time-limit 90min
config network Aloha
config Aloha.numHosts 20
config Aloha.slotTime 0s
config Aloha.txRate 9.6kbps
config Aloha.host[*].pkLenBits 952b
config **.x "uniform(0m, 1000m)"
config **.y "uniform(0m, 1000m)"
config **.animationHoldTimeOnCollision 0s
config **.idleAnimationSpeed 1
config **.transmissionEdgeAnimationSpeed 1e-6
config **.midTransmissionAnimationSpeed 1e-1

vector 0 Aloha.server serverChannelState:vector ETV
attr enum IDLE=0,TRANSMISSION=1,COLLISION=2
attr recordingmode vector
attr source channelState
attr title "Channel state"
vector 1 Aloha.host[0] radioState:vector ETV
attr enum IDLE=0,TRANSMIT=1
attr recordingmode vector
attr source state
attr title "Radio state"
vector 2 Aloha.host[1] radioState:vector ETV
attr enum IDLE=0,TRANSMIT=1
attr recordingmode vector
attr source state
attr title "Radio state"
vector 3 Aloha.host[2] radioState:vector ETV
attr enum IDLE=0,TRANSMIT=1
attr recordingmode vector
attr source state
attr title "Radio state"
vector 4 Aloha.host[3] radioState:vector ETV
attr enum IDLE=0,TRANSMIT=1
attr recordingmode vector
attr source state
attr title "Radio state"
vector 5 Aloha.host[4] radioState:vector ETV
attr enum IDLE=0,TRANSMIT=1
attr recordingmode vector
attr source state
attr title "Radio state"
vector 6 Aloha.host[5] radioState:vector ETV
attr enum IDLE=0,TRANSMIT=1
attr recordingmode vector
attr source state
attr title "Radio state"
vector 7 Aloha.host[6] radioState:vector ETV
attr enum IDLE=0,TRANSMIT=1
attr recordingmode vector
attr source state
attr title "Radio state"
vector 8 Aloha.host[7] radioState:vector ETV
attr enum IDLE=0,TRANSMIT=1
attr recordingmode vector
attr source state
attr title "Radio state"
vector 9 Aloha.host[8] radioState:vector ETV
attr enum IDLE=0,TRANSMIT=1
attr recordingmode vector
attr source state
attr title "Radio state"
vector 10 Aloha.host[9] radioState:vector ETV
attr enum IDLE=0,TRANSMIT=1
attr recordingmode vector
attr source state
attr title "Radio state"
vector 11 Aloha.host[10] radioState:vector ETV
attr enum IDLE=0,TRANSMIT=1
attr recordingmode vector
attr source state
attr title "Radio state"
vector 12 Aloha.host[11] radioState:vector ETV
attr enum IDLE=0,TRANSMIT=1
attr recordingmode vector
attr source state
attr title "Radio state"
vector 13 Aloha.host[12] radioState:vector ETV
attr enum IDLE=0,TRANSMIT=1
attr recordingmode vector
attr source state
attr title "Radio state"
vector 14 Aloha.host[13] radioState:vector ETV
attr enum IDLE=0,TRANSMIT=1
attr recordingmode vector
attr source state
attr title "Radio state"
vector 15 Aloha.host[14] radioState:vector ETV
attr enum IDLE=0,TRANSMIT=1
attr recordingmode vector
attr source state
attr title "Radio state"
vector 16 Aloha.server channelUtilization:vector ETV
attr interpolationmode lineal
attr recordingmode vector
attr source timeavg(receive)
attr title "channel utilization vector"
0	0	0	0
0	2	0.147207957954	1
0	4	0.246374624621	0
0	6	0.865251370583	1
0	8	0.96441803725	0
0	10	1.01688423817	1
0	12	1.116050904837	0
0	14	1.226450487351	1
0	16	1.325617154018	0
0	18	2.015816657817	1
0	20	2.114983324484	0
0	22	3.560824833035	1
0	24	3.659991499702	0
0	26	4.262300327706	1
0	28	4.361466994373	0
0	30	4.650252020288	1
0	32	4.749418686955	0
0	34	5.621324792538	1
0	36	5.720491459205	0
0	38	5.797016636351	1
0	40	5.896183303018	0
0	42	5.946791984736	1
0	44	6.045958651403	0
0	46	6.966244863411	1
0	48	7.065411530078	0
0	50	7.136796282773	1
0	52	7.23596294944	0
0	54	7.616797963845	1
0	56	7.715964630512	0
0	58	8.071296463252	1
0	60	8.12040069113	2
0	63	8.219567357797	0
0	65	8.289542732269	1
0	67	8.388709398936	0
0	69	9.117137286481	1
0	71	9.216303953148	0
0	73	9.427432026755	1
0	75	9.526598693422	0
0	77	9.612793570827	1
0	79	9.711960237494	0
0	81	9.793628564751	1
0	83	9.892795231418	0
0	85	10.124107879635	1
0	87	10.223274546302	0
0	89	10.231177082503	1
0	91	10.33034374917	0
0	93	10.99756268321	1
0	95	11.096729349877	0
0	97	11.310497174202	1
0	99	11.409663840869	0
0	101	11.610891902826	1
0	103	11.710058569493	0
0	105	12.068372408426	1
0	107	12.167539075093	0
0	109	12.668246006828	1
0	111	12.737982275794	2
0	114	12.837148942461	0
0	116	13.075141809383	1
0	118	13.17430847605	0
0	120	16.205231540952	1
0	122	16.304398207619	0
0	124	16.312261433178	1
0	126	16.411428099845	0
0	128	16.605560943765	1
0	130	16.646244591591	2
0	133	16.745411258258	0
0	135	16.827989947249	1
0	137	16.927156613916	0
0	139	17.081283033692	1
0	141	17.180449700359	0
0	143	18.35648994886	1
0	145	18.455656615527	0
0	147	20.074776248474	1
0	149	20.138331536888	2
0	152	20.237498203555	0
0	154	20.328563439565	1
0	156	20.427730106232	0
0	158	20.612959425066	1
0	160	20.712126091733	0
0	162	21.542336727499	1
0	164	21.641503394166	0
0	166	21.92138093579	1
0	168	22.020547602457	0
0	170	22.145536504863	1
0	172	22.24470317153	0
0	174	22.426829770112	1
0	176	22.469963466117	2
0	179	22.569130132784	0
0	181	23.251323282824	1
0	183	23.264791328238	2
0	186	23.363957994905	0
0	188	23.495998338486	1
0	190	23.595165005153	0
0	192	24.968567887164	1
0	194	25.067734553831	0
0	196	25.445550992915	1
0	198	25.544717659582	0
0	200	26.106873886461	1
0	202	26.206040553128	0
0	204	26.456651493335	1
0	206	26.555818160002	0
0	208	26.639697205181	1
0	210	26.738863871848	0
0	212	26.923371334688	1
0	214	27.022538001355	0
0	216	27.355120296728	1
0	218	27.454286963395	0
0	220	27.712593926559	1
0	222	27.811760593226	0
0	224	27.832599288281	1
0	226	27.931765954948	0
0	228	29.167288832422	1
0	230	29.266455499089	0
0	232	29.45280542432	1
0	234	29.551972090987	0
0	236	29.750104401552	1
0	238	29.849271068219	0
0	240	29.951504329948	1
0	242	30.050670996615	0
0	244	31.384762941317	1
0	246	31.46474176691	2
0	249	31.563908433577	0
0	251	32.110886867305	1
0	253	32.210053533972	0
0	255	32.54909640628	1
0	257	32.648263072947	0
0	259	33.044403616463	1
0	261	33.14357028313	0
0	263	33.310792964517	1
0	265	33.409959631184	0
0	267	35.009822822512	1
0	269	35.108989489179	0
0	271	35.582768424755	1
0	273	35.681935091422	0
0	275	36.447453993802	1
0	277	36.546620660469	0
0	279	36.685278575037	1
0	281	36.751939091111	2
0	284	36.851105757778	0
0	286	37.130385594649	1
0	288	37.199765768696	2
0	291	37.298932435363	0
0	293	38.005362618651	1
0	295	38.097130334283	2
0	298	38.19629700095	0
0	300	38.325308274541	1
0	302	38.424474941208	0
0	304	38.595243185424	1
0	306	38.694409852091	0
0	308	39.268597257511	1
0	310	39.367763924178	0
0	312	39.451347360055	1
0	314	39.550514026722	0
0	316	39.722110032108	1
0	318	39.821276698775	0
0	320	40.242674908318	1
0	322	40.341841574985	0
0	324	40.342801752755	1
0	326	40.441968419422	0
0	328	40.497580429734	1
0	330	40.596747096401	0
0	332	41.033296367167	1
0	334	41.132463033834	0
0	336	41.639321240498	1
0	338	41.738487907165	0
0	340	42.853893014422	1
0	342	42.953059681089	0
0	344	43.176595911146	1
0	346	43.228324116133	2
0	349	43.3274907828	0
0	351	43.429743213682	1
0	353	43.528909880349	0
0	355	45.193052354702	1
0	357	45.292219021369	0
0	359	45.911678344786	1
0	361	46.010845011453	0
0	363	46.076885437222	1
0	365	46.176052103889	0
0	367	46.305088593097	1
0	369	46.404255259764	0
0	371	46.544728636276	1
0	373	46.643895302943	0
0	375	46.972799687542	1
0	377	47.005541254038	2
0	380	47.104707920705	0
0	382	47.285057652194	1
0	384	47.384224318861	0
0	386	47.513550361661	1
0	388	47.612717028328	0
0	390	47.681159477946	1
0	392	47.780326144613	0
0	394	47.823799832836	1
0	396	47.922966499503	0
0	398	48.263130524336	1
0	400	48.362297191003	0
0	402	48.759732125132	1
0	404	48.858898791799	0
0	406	49.494772460682	1
0	408	49.559748594126	2
0	411	49.658915260793	0
0	413	50.19307755576	1
0	415	50.292244222427	0
0	417	50.75119108126	1
0	419	50.850357747927	0
0	421	51.682823021705	1
0	423	51.781989688372	0
0	425	51.808101072826	1
0	427	51.907267739493	0
0	429	52.128793806943	1
0	431	52.22796047361	0
0	433	52.649057972688	1
0	435	52.748224639355	0
0	437	53.2749025875	1
0	439	53.374069254167	0
0	441	53.400865392538	1
0	443	53.500032059205	0
0	445	53.570978504311	1
0	447	53.656956385545	2
0	450	53.756123052212	0
0	452	53.797121592428	1
0	454	53.896288259095	0
0	456	54.34404420339	1
0	458	54.443210870057	0
0	460	54.464809435416	1
0	462	54.563976102083	0
0	464	56.393596029667	1
0	466	56.492762696334	0
0	468	57.180070738303	1
0	470	57.2683134276	2
0	473	57.367480094267	0
0	475	57.572420377803	1
0	477	57.67158704447	0
0	479	59.086947602658	1
0	481	59.186114269325	0
0	483	59.628812614344	1
0	485	59.686833802671	2
0	488	59.786000469338	0
0	490	59.988502502303	1
0	492	60.08766916897	0
0	494	60.408979187167	1
0	496	60.508145853834	0
0	498	60.600936973191	1
0	500	60.622186068804	2
0	503	60.721352735471	0
0	505	61.550139165008	1
0	507	61.649305831675	0
0	509	61.670050188269	1
0	511	61.769216854936	0
0	513	62.965538136322	1
0	515	63.064704802989	0
0	517	63.23445179235	1
0	519	63.333618459017	0
0	521	63.415601279906	1
0	523	63.427718026232	2
0	526	63.526884692899	0
0	528	63.587804493041	1
0	530	63.604797518473	2
0	533	63.70396418514	0
0	535	64.181025487424	1
0	537	64.280192154091	0
0	539	64.511149622542	1
0	541	64.610316289209	0
0	543	65.127219817611	1
0	545	65.226386484278	0
0	547	66.548476407636	1
0	549	66.647643074303	0
0	551	66.659255407932	1
0	553	66.758422074599	0
0	555	67.172525553723	1
0	557	67.27169222039	0
0	559	67.294745887619	1
0	561	67.393912554286	0
0	563	67.424317918286	1
0	565	67.427981823119	2
0	568	67.527148489786	0
0	570	67.643269183032	1
0	572	67.742435849699	0
0	574	67.931751958199	1
0	576	68.030918624866	0
0	578	68.121803973033	1
0	580	68.2209706397	0
0	582	68.262458852203	1
0	584	68.36162551887	0
0	586	68.372135052945	1
0	588	68.471301719612	0
0	590	69.108786289618	1
0	592	69.207952956285	0
0	594	71.046983341851	1
0	596	71.146150008518	0
0	598	73.856894453728	1
0	600	73.956061120395	0
0	602	74.330808280145	1
0	604	74.429974946812	0
0	606	74.551551142094	1
0	608	74.650717808761	0
0	610	74.821751872144	1
0	612	74.920918538811	0
0	614	75.679990264953	1
0	616	75.698586665003	2
0	618	75.721503765122	2
0	622	75.820670431789	0
0	624	76.810765731183	1
0	626	76.90993239785	0
0	628	77.255793486806	1
0	630	77.354960153473	0
0	632	77.665042794841	1
0	634	77.764209461508	0
0	636	78.234025132814	1
0	638	78.271253509339	2
0	641	78.370420176006	0
0	643	79.530587583296	1
0	645	79.629754249963	0
0	647	79.870719102694	1
0	649	79.969885769361	0
0	651	80.590392027998	1
0	653	80.689558694665	0
0	655	80.769887053954	1
0	657	80.869053720621	0
0	659	81.526678994507	1
0	661	81.625845661174	0
0	663	82.205127478079	1
0	665	82.304294144746	0
0	667	82.384615976159	1
0	669	82.483782642826	0
0	671	82.89893569932	1
0	673	82.998102365987	0
0	675	83.648828669398	1
0	677	83.747995336065	0
0	679	83.959736647077	1
0	681	84.058903313744	0
0	683	84.207786902369	1
0	685	84.306953569036	0
0	687	84.633388765052	1
0	689	84.732555431719	0
0	691	85.311355636452	1
0	693	85.410522303119	0
0	695	85.410722634755	1
0	697	85.427789258152	2
0	700	85.526955924819	0
0	702	85.573746526261	1
0	704	85.672913192928	0
0	706	85.884055133864	1
0	708	85.983221800531	0
0	710	86.315518028964	1
0	712	86.414684695631	0
0	714	86.451335293589	1
0	716	86.550501960256	0
0	718	86.611488123388	1
0	720	86.710654790055	0
0	722	86.943157874085	1
0	724	87.042324540752	0
0	726	87.064921541658	1
0	728	87.09077010146	2
0	730	87.152105778208	2
0	734	87.251272444875	0
0	736	87.66797920482	1
0	738	87.767145871487	0
0	740	88.525958796261	1
0	742	88.625125462928	0
0	744	89.474123504091	1
0	746	89.573290170758	0
0	748	89.643828126824	1
0	750	89.662230935188	2
0	753	89.761397601855	0
0	755	89.954771715746	1
0	757	90.007587004937	2
0	760	90.106753671604	0
0	762	91.232842111007	1
0	764	91.332008777674	0
0	766	91.727614164247	1
0	768	91.826780830914	0
0	770	92.112312752725	1
0	772	92.211479419392	0
0	774	92.817558208218	1
0	776	92.916724874885	0
0	778	93.285356805091	1
0	780	93.340035892349	2
0	783	93.439202559016	0
0	785	93.659989785402	1
0	787	93.722741597414	2
0	790	93.821908264081	0
0	792	93.946145289015	1
0	794	94.045311955682	0
0	796	94.196214112637	1
0	798	94.197992641655	2
0	800	94.260887645234	2
0	804	94.360054311901	0
0	806	94.82701975529	1
0	808	94.851090724571	2
0	811	94.950257391238	0
0	813	94.991138831079	1
0	815	94.99613598192	2
0	818	95.095302648587	0
0	820	95.578882295453	1
0	822	95.67804896212	0
0	824	96.269577755505	1
0	826	96.368744422172	0
0	828	96.57551585677	1
0	830	96.674682523437	0
0	832	96.937940633559	1
0	834	97.037107300226	0
0	836	97.165583352649	1
0	838	97.264750019316	0
0	840	97.324820871512	1
0	842	97.423987538179	0
0	844	97.801761684421	1
0	846	97.888416034322	2
0	849	97.987582700989	0
0	851	98.294582423646	1
0	853	98.393749090313	0
0	855	99.426671538327	1
0	857	99.525838204994	0
0	859	99.756491989803	1
0	861	99.761650891594	2
0	864	99.860817558261	0
0	866	99.883142364143	1
0	868	99.911907447379	2
0	871	100.011074114046	0
0	873	100.055761896574	1
0	875	100.075463767629	2
0	878	100.174630434296	0
0	880	100.33909334012	1
0	882	100.438260006787	0
0	884	100.459645042756	1
0	886	100.558811709423	0
0	888	100.753802215929	1
0	890	100.799341389584	2
0	893	100.898508056251	0
0	895	101.057313586446	1
0	897	101.156480253113	0
0	899	101.984717282924	1
0	901	102.083883949591	0
0	903	102.152140978337	1
0	905	102.157494084901	2
0	908	102.256660751568	0
0	910	102.466139916472	1
0	912	102.565306583139	0
0	914	103.001614649008	1
0	916	103.100781315675	0
0	918	103.218935720712	1
0	920	103.318102387379	0
0	922	103.50815601106	1
0	924	103.607322677727	0
0	926	104.246912519305	1
0	928	104.346079185972	0
0	930	104.621551458063	1
0	932	104.72071812473	0
0	934	105.819028202636	1
0	936	105.918194869303	0
0	938	106.524633467587	1
0	940	106.623800134254	0
0	942	106.658268168799	1
0	944	106.68255755289	2
0	947	106.781724219557	0
0	949	107.012933554525	1
0	951	107.112100221192	0
0	953	107.85566893518	1
0	955	107.954835601847	0
0	957	108.706456232495	1
0	959	108.805622899162	0
0	961	109.571155420282	1
0	963	109.670322086949	0
0	965	111.483966446137	1
0	967	111.583133112804	0
0	969	111.929546340958	1
0	971	112.028713007625	0
0	973	112.248914581279	1
0	975	112.348081247946	0
0	977	112.441906974536	1
0	979	112.445327809036	2
0	982	112.544494475703	0
0	984	112.608068888015	1
0	986	112.707235554682	0
0	988	113.199571189817	1
0	990	113.298737856484	0
0	992	114.245011855401	1
0	994	114.344178522068	0
0	996	114.347134778977	1
0	998	114.429980142645	2
0	1001	114.529146809312	0
0	1003	114.737730745033	1
0	1005	114.8368974117	0
0	1007	116.492260478477	1
0	1009	116.584125350671	2
0	1012	116.683292017338	0
0	1014	116.728468269176	1
0	1016	116.827634935843	0
0	1018	116.864450037909	1
0	1020	116.886045266498	2
0	1023	116.985211933165	0
0	1025	117.627218580341	1
0	1027	117.726385247008	0
0	1029	118.06957389783	1
0	1031	118.168740564497	0
0	1033	118.803862412543	1
0	1035	118.90302907921	0
0	1037	119.162349268169	1
0	1039	119.261515934836	0
0	1041	119.572605252281	1
0	1043	119.640878030948	2
0	1046	119.740044697615	0
0	1048	120.082655835387	1
0	1050	120.181822502054	0
0	1052	120.26292067752	1
0	1054	120.362087344187	0
0	1056	121.077844264194	1
0	1058	121.177010930861	0
0	1060	121.860541793662	1
0	1062	121.959708460329	0
0	1064	122.016660552959	1
0	1066	122.115827219626	0
0	1068	122.209930873149	1
0	1070	122.309097539816	0
0	1072	122.617013587061	1
0	1074	122.716180253728	0
0	1076	123.704347913128	1
0	1078	123.803514579795	0
0	1080	124.055355922679	1
0	1082	124.154522589346	0
0	1084	124.242824373256	1
0	1086	124.337512801466	2
0	1089	124.436679468133	0
0	1091	125.387199472351	1
0	1093	125.486366139018	0
0	1095	125.649771053796	1
0	1097	125.748937720463	0
0	1099	126.838966196174	1
0	1101	126.938132862841	0
0	1103	127.606879690707	1
0	1105	127.660011376249	2
0	1108	127.724241792126	2
0	1111	127.823408458793	0
0	1113	127.920553579295	1
0	1115	128.019720245962	0
0	1117	128.570763183895	1
0	1119	128.669929850562	0
0	1121	128.696507066907	1
0	1123	128.795673733574	0
0	1125	128.8758665351	1
0	1127	128.975033201767	0
0	1129	129.805535122382	1
0	1131	129.904701789049	0
0	1133	130.401586466677	1
0	1135	130.500753133344	0
0	1137	131.203133746402	1
0	1139	131.302300413069	0
0	1141	131.682243546643	1
0	1143	131.78141021331	0
0	1145	132.470222727877	1
0	1147	132.569389394544	0
0	1149	132.954667208692	1
0	1151	133.053833875359	0
0	1153	133.813538761649	1
0	1155	133.912705428316	0
0	1157	134.246679660704	1
0	1159	134.345846327371	0
0	1161	134.37833432992	1
0	1163	134.477500996587	0
0	1165	134.557629678477	1
0	1167	134.656796345144	0
0	1169	134.679967906274	1
0	1171	134.779134572941	0
0	1173	134.842993209865	1
0	1175	134.942159876532	0
0	1177	135.128884398857	1
0	1179	135.214182581301	2
0	1182	135.245033700432	2
0	1185	135.344200367099	0
0	1187	135.773755171867	1
0	1189	135.872921838534	0
0	1191	135.973339685762	1
0	1193	136.072506352429	0
0	1195	136.155738921139	1
0	1197	136.254905587806	0
0	1199	136.319205388797	1
0	1201	136.418372055464	0
0	1203	137.130828482979	1
0	1205	137.229995149646	0
0	1207	139.267584130002	1
0	1209	139.366750796669	0
0	1211	139.788862751321	1
0	1213	139.888029417988	0
0	1215	140.41751651417	1
0	1217	140.516683180837	0
0	1219	141.372148373415	1
0	1221	141.471315040082	0
0	1223	141.838025126088	1
0	1225	141.937191792755	0
0	1227	142.068861912051	1
0	1229	142.168028578718	0
0	1231	142.56890378976	1
0	1233	142.661942283127	2
0	1236	142.761108949794	0
0	1238	143.038036365516	1
0	1240	143.137203032183	0
0	1242	143.544634538579	1
0	1244	143.643801205246	0
0	1246	144.464307719088	1
0	1248	144.563474385755	0
0	1250	144.722507567997	1
0	1252	144.821674234664	0
0	1254	145.390316225924	1
0	1256	145.489482892591	0
0	1258	145.78080813716	1
0	1260	145.879974803827	0
0	1262	147.985188088634	1
0	1264	148.084354755301	0
0	1266	149.062507725786	1
0	1268	149.161674392453	0
0	1270	150.970540803695	1
0	1272	151.026869414796	2
0	1275	151.126036081463	0
0	1277	152.607753052216	1
0	1279	152.706919718883	0
0	1281	153.002254524651	1
0	1283	153.080086645403	2
0	1286	153.17925331207	0
0	1288	153.259228211025	1
0	1290	153.358394877692	0
0	1292	153.891401901395	1
0	1294	153.990568568062	0
0	1296	154.117563871475	1
0	1298	154.216730538142	0
0	1300	154.881461413922	1
0	1302	154.980628080589	0
0	1304	155.071718140109	1
0	1306	155.170884806776	0
0	1308	155.464404226988	1
0	1310	155.563570893655	0
0	1312	156.923102779193	1
0	1314	157.02226944586	0
0	1316	157.138982122187	1
0	1318	157.238148788854	0
0	1320	158.082964417795	1
0	1322	158.182131084462	0
0	1324	159.014477757387	1
0	1326	159.113644424054	0
0	1328	159.208025948871	1
0	1330	159.307192615538	0
0	1332	160.15018020257	1
0	1334	160.249346869237	0
0	1336	160.430534991517	1
0	1338	160.506283185413	2
0	1341	160.60544985208	0
0	1343	161.142831265719	1
0	1345	161.241997932386	0
0	1347	161.347186332381	1
0	1349	161.446352999048	0
0	1351	162.049562599251	1
0	1353	162.148729265918	0
0	1355	162.179114671889	1
0	1357	162.278281338556	0
0	1359	162.698124793798	1
0	1361	162.797291460465	0
0	1363	163.582982819292	1
0	1365	163.682149485959	0
0	1367	163.756646018713	1
0	1369	163.85581268538	0
0	1371	164.607305514348	1
0	1373	164.706472181015	0
0	1375	165.216487637811	1
0	1377	165.315654304478	0
0	1379	166.384110811178	1
0	1381	166.483277477845	0
0	1383	167.293912959864	1
0	1385	167.393079626531	0
0	1387	167.444042012	1
0	1389	167.543208678667	0
0	1391	167.573064417071	1
0	1393	167.579550536317	2
0	1396	167.678717202984	0
0	1398	168.165755856898	1
0	1400	168.264922523565	0
0	1402	168.568682159485	1
0	1404	168.667848826152	0
0	1406	169.928986327454	1
0	1408	170.028152994121	0
0	1410	170.310120983451	1
0	1412	170.409287650118	0
0	1414	170.759493671904	1
0	1416	170.776023376472	2
0	1419	170.875190043139	0
0	1421	172.175948756709	1
0	1423	172.275115423376	0
0	1425	172.356624915823	1
0	1427	172.441046505744	2
0	1430	172.540213172411	0
0	1432	173.357864642355	1
0	1434	173.457031309022	0
0	1436	173.611561236697	1
0	1438	173.707711356194	2
0	1441	173.806878022861	0
0	1443	174.895310488108	1
0	1445	174.97544000108	2
0	1448	175.074606667747	0
0	1450	175.709943488242	1
0	1452	175.809110154909	0
0	1454	175.962237525778	1
0	1456	176.024247051601	2
0	1459	176.123413718268	0
0	1461	176.386615203416	1
0	1463	176.485781870083	0
0	1465	176.748593309422	1
0	1467	176.847759976089	0
0	1469	176.892471371754	1
0	1471	176.991638038421	0
0	1473	177.23197440376	1
0	1475	177.277390839371	2
0	1477	177.293391703819	2
0	1481	177.392558370486	0
0	1483	178.699912600078	1
0	1485	178.799079266745	0
0	1487	179.84973116223	1
0	1489	179.948897828897	0
0	1491	180.186882887813	1
0	1493	180.28604955448	0
0	1495	180.306504332968	1
0	1497	180.405670999635	0
0	1499	180.958265132522	1
0	1501	181.057431799189	0
0	1503	181.94562365581	1
0	1505	182.044790322477	0
0	1507	182.105325767876	1
0	1509	182.204492434543	0
0	1511	182.535041750917	1
0	1513	182.634208417584	0
0	1515	183.946917258136	1
0	1517	184.046083924803	0
0	1519	185.024341703183	1
0	1521	185.12350836985	0
0	1523	185.510940834817	1
0	1525	185.554705509543	2
0	1527	185.587549346442	2
0	1531	185.686716013109	0
0	1533	186.497305347152	1
0	1535	186.596472013819	0
0	1537	186.945141479365	1
0	1539	187.044308146032	0
0	1541	187.081458723913	1
0	1543	187.18062539058	0
0	1545	187.486998005762	1
0	1547	187.586164672429	0
0	1549	187.796614683524	1
0	1551	187.895781350191	0
0	1553	188.10111589566	1
0	1555	188.200282562327	0
0	1557	188.683456002597	1
0	1559	188.782622669264	0
0	1561	188.878317841955	1
0	1563	188.977484508622	0
0	1565	189.090126282403	1
0	1567	189.18929294907	0
0	1569	189.204341769099	1
0	1571	189.303508435766	0
0	1573	189.487643322402	1
0	1575	189.586809989069	0
0	1577	190.644986022607	1
0	1579	190.744152689274	0
0	1581	191.031827541089	1
0	1583	191.130994207756	0
0	1585	191.4065025184	1
0	1587	191.505669185067	0
0	1589	191.711868075054	1
0	1591	191.811034741721	0
0	1593	191.818913324837	1
0	1595	191.918079991504	0
0	1597	192.091305492555	1
0	1599	192.190472159222	0
0	1601	193.765011130601	1
0	1603	193.864177797268	0
0	1605	194.550565314037	1
0	1607	194.602940322501	2
0	1610	194.692690670032	2
0	1613	194.791857336699	0
0	1615	195.508818556305	1
0	1617	195.607985222972	0
0	1619	196.056333677755	1
0	1621	196.155500344422	0
0	1623	196.845849538301	1
0	1625	196.945016204968	0
0	1627	196.97849884525	1
0	1629	197.077665511917	0
0	1631	197.364166898424	1
0	1633	197.463333565091	0
0	1635	197.823351163652	1
0	1637	197.922517830319	0
0	1639	197.94911007788	1
0	1641	198.048276744547	0
0	1643	198.764167522945	1
0	1645	198.807713155955	2
0	1648	198.906879822622	0
0	1650	198.914150755566	1
0	1652	199.013317422233	0
0	1654	199.250668283806	1
0	1656	199.349834950473	0
0	1658	199.630836306002	1
0	1660	199.730002972669	0
0	1662	199.859856495748	1
0	1664	199.959023162415	0
0	1666	200.007402474278	1
0	1668	200.106569140945	0
0	1670	200.113713237392	1
0	1672	200.212879904059	0
0	1674	200.660669032166	1
0	1676	200.759835698833	0
0	1678	201.601317492118	1
0	1680	201.700484158785	0
0	1682	203.14537487251	1
0	1684	203.244541539177	0
0	1686	203.271581120684	1
0	1688	203.280440406674	2
0	1691	203.379607073341	0
0	1693	203.558301411413	1
0	1695	203.600484116785	2
0	1698	203.699650783452	0
0	1700	204.03221395748	1
0	1702	204.131380624147	0
0	1704	204.627168619947	1
0	1706	204.726335286614	0
0	1708	204.821423828267	1
0	1710	204.920590494934	0
0	1712	205.252371882555	1
0	1714	205.351538549222	0
0	1716	205.555576655133	1
0	1718	205.562727134255	2
0	1721	205.661893800922	0
0	1723	206.701882846505	1
0	1725	206.801049513172	0
0	1727	206.884403703322	1
0	1729	206.983570369989	0
0	1731	207.069019036847	1
0	1733	207.168185703514	0
0	1735	207.518386700999	1
0	1737	207.617553367666	0
0	1739	208.678528163703	1
0	1741	208.77769483037	0
0	1743	208.826488584276	1
0	1745	208.873050280335	2
0	1748	208.972216947002	0
0	1750	209.010056946162	1
0	1752	209.109223612829	0
0	1754	209.165621651462	1
0	1756	209.212924512497	2
0	1759	209.312091179164	0
0	1761	209.982068757208	1
0	1763	210.081235423875	0
0	1765	210.546006375468	1
0	1767	210.645173042135	0
0	1769	211.4107784993	1
0	1771	211.509945165967	0
0	1773	211.570955752356	1
0	1775	211.670122419023	0
0	1777	211.834474659904	1
0	1779	211.933641326571	0
0	1781	212.101560910121	1
0	1783	212.200727576788	0
0	1785	213.084169905457	1
0	1787	213.183336572124	0
0	1789	213.572903300621	1
0	1791	213.672069967288	0
0	1793	214.365810035049	1
0	1795	214.464976701716	0
0	1797	214.702223792573	1
0	1799	214.705285006475	2
0	1801	214.786639764552	2
0	1805	214.868354079257	2
0	1808	214.967520745924	0
0	1810	215.965280059913	1
0	1812	216.06444672658	0
0	1814	216.557905009356	1
0	1816	216.657071676023	0
0	1818	216.676049466354	1
0	1820	216.685936497855	2
0	1822	216.687056033099	2
0	1826	216.786222699766	0
0	1828	217.000113814983	1
0	1830	217.006049300372	2
0	1832	217.057822784623	2
0	1836	217.143264704491	2
0	1839	217.242431371158	0
0	1841	217.472838051476	1
0	1843	217.572004718143	0
0	1845	217.572209701188	1
0	1847	217.671376367855	0
0	1849	217.705053326557	1
0	1851	217.804219993224	0
0	1853	217.887258979785	1
0	1855	217.942134487943	2
0	1858	218.04130115461	0
0	1860	218.24889963527	1
0	1862	218.348066301937	0
0	1864	219.165449694457	1
0	1866	219.264616361124	0
0	1868	219.657848993947	1
0	1870	219.757015660614	0
0	1872	219.802568205556	1
0	1874	219.901734872223	0
0	1876	220.030145872103	1
0	1878	220.12931253877	0
0	1880	220.386630657252	1
0	1882	220.478193950488	2
0	1885	220.49435311935	2
0	1888	220.593519786017	0
0	1890	220.721576451543	1
0	1892	220.82074311821	0
0	1894	221.548513318381	1
0	1896	221.647679985048	0
0	1898	221.769452188027	1
0	1900	221.868618854694	0
0	1902	222.042992440071	1
0	1904	222.142159106738	0
0	1906	222.163491909422	1
0	1908	222.262658576089	0
0	1910	223.809289696046	1
0	1912	223.908456362713	0
0	1914	224.427156961521	1
0	1916	224.526323628188	0
0	1918	225.925660895342	1
0	1920	226.000399330026	2
0	1923	226.099565996693	0
0	1925	226.333143644367	1
0	1927	226.382983411153	2
0	1930	226.48215007782	0
0	1932	227.546040145318	1
0	1934	227.645206811985	0
0	1936	227.785898347127	1
0	1938	227.885065013794	0
0	1940	229.38700323019	1
0	1942	229.445312419908	2
0	1945	229.544479086575	0
0	1947	229.703091214133	1
0	1949	229.8022578808	0
0	1951	229.924430653186	1
0	1953	230.023597319853	0
0	1955	230.05425599454	1
0	1957	230.153422661207	0
0	1959	230.202628752572	1
0	1961	230.301795419239	0
0	1963	230.305585599968	1
0	1965	230.404752266635	0
0	1967	231.410621989596	1
0	1969	231.509788656263	0
0	1971	232.593282292251	1
0	1973	232.692448958918	0
0	1975	233.238601655242	1
0	1977	233.337768321909	0
0	1979	234.382984821662	1
0	1981	234.393273156216	2
0	1984	234.492439822883	0
0	1986	234.715676595232	1
0	1988	234.814843261899	0
0	1990	235.285756297233	1
0	1992	235.375049097616	2
0	1995	235.474215764283	0
0	1997	236.064480185406	1
0	1999	236.112095584664	2
0	2002	236.211262251331	0
0	2004	236.790399994129	1
0	2006	236.889566660796	0
0	2008	237.476688924767	1
0	2010	237.575855591434	0
0	2012	237.66067780207	1
0	2014	237.759844468737	0
0	2016	237.92849745318	1
0	2018	238.027664119847	0
0	2020	238.818708900695	1
0	2022	238.917875567362	0
0	2024	240.041199817724	1
0	2026	240.140366484391	0
0	2028	240.145871167766	1
0	2030	240.245037834433	0
0	2032	240.375687429619	1
0	2034	240.474854096286	0
0	2036	240.864958430353	1
0	2038	240.901340702354	2
0	2041	241.000507369021	0
0	2043	241.061842054238	1
0	2045	241.161008720905	0
0	2047	241.69988071526	1
0	2049	241.799047381927	0
0	2051	242.442535916786	1
0	2053	242.541702583453	0
0	2055	243.405102558822	1
0	2057	243.504269225489	0
0	2059	243.53542085263	1
0	2061	243.631574757868	2
0	2064	243.700994512218	2
0	2067	243.800161178885	0
0	2069	245.523320038581	1
0	2071	245.622486705248	0
0	2073	245.642424123855	1
0	2075	245.741590790522	0
0	2077	245.812667642681	1
0	2079	245.841991798888	2
0	2082	245.941158465555	0
0	2084	246.415612242592	1
0	2086	246.514778909259	0
0	2088	246.623347040419	1
0	2090	246.722513707086	0
0	2092	246.81114117806	1
0	2094	246.825736179783	2
0	2096	246.900920548771	2
0	2100	247.000087215438	0
0	2102	247.248016271857	1
0	2104	247.347182938524	0
0	2106	247.791020613752	1
0	2108	247.890187280419	0
0	2110	248.214197523272	1
0	2112	248.313364189939	0
0	2114	248.441186401383	1
0	2116	248.54035306805	0
0	2118	248.831187367143	1
0	2120	248.93035403381	0
0	2122	249.541771901742	1
0	2124	249.626580576701	2
0	2127	249.725747243368	0
0	2129	251.229117374034	1
0	2131	251.328284040701	0
0	2133	251.66391538106	1
0	2135	251.763082047727	0
0	2137	252.058942562485	1
0	2139	252.073004435337	2
0	2141	252.144616457132	2
0	2145	252.243783123799	0
0	2147	253.039076438939	1
0	2149	253.124981719955	2
0	2152	253.224148386622	0
0	2154	253.373882372824	1
0	2156	253.473049039491	0
0	2158	254.162583680475	1
0	2160	254.197978392164	2
0	2163	254.297145058831	0
0	2165	255.701516572663	1
0	2167	255.795064829189	2
0	2170	255.824623926197	2
0	2173	255.923790592864	0
0	2175	256.027479950533	1
0	2177	256.1266466172	0
0	2179	256.172467314392	1
0	2181	256.271633981059	0
0	2183	258.45654464012	1
0	2185	258.555711306787	0
0	2187	258.574304103794	1
0	2189	258.673470770461	0
0	2191	259.12187895111	1
0	2193	259.221045617777	0
0	2195	259.325067660081	1
0	2197	259.424234326748	0
0	2199	259.54889499088	1
0	2201	259.648061657547	0
0	2203	261.307677863797	1
0	2205	261.406844530464	0
0	2207	261.577381357829	1
0	2209	261.676548024496	0
0	2211	262.15691084651	1
0	2213	262.224686609119	2
0	2216	262.323853275786	0